 Gaussian 09, Revision D.01,
 Gaussian 09:  EM64L-G09RevD.01 24-Apr-2013

 ----------------------------------------------------------------------
 # opt=(calcfc,ts,noeigen) freq=noraman 6-31+g(d) geom=connectivity m06
 2x
 ----------------------------------------------------------------------

 -------------------
 Title Card Required
 -------------------
 Symbolic Z-matrix:
 Charge =  0 Multiplicity = 1

 SCF Done:  E(RM062X) =  -234.256652651     A.U. after   13 cycles
 SCF Done:  E(RM062X) =  -234.305519871     A.U. after   13 cycles
 SCF Done:  E(RM062X) =  -234.346007770     A.U. after   12 cycles
 SCF Done:  E(RM062X) =  -234.382300575     A.U. after   12 cycles
 SCF Done:  E(RM062X) =  -234.412484979     A.U. after   12 cycles
 SCF Done:  E(RM062X) =  -234.426111498     A.U. after   12 cycles
 SCF Done:  E(RM062X) =  -234.420944256     A.U. after   12 cycles
 SCF Done:  E(RM062X) =  -234.408811907     A.U. after   13 cycles
 SCF Done:  E(RM062X) =  -234.405087221     A.U. after   12 cycles
 SCF Done:  E(RM062X) =  -234.406939386     A.U. after   13 cycles
 SCF Done:  E(RM062X) =  -234.420827778     A.U. after   11 cycles
 SCF Done:  E(RM062X) =  -234.421115781     A.U. after   11 cycles
 SCF Done:  E(RM062X) =  -234.421134342     A.U. after   11 cycles
 SCF Done:  E(RM062X) =  -234.421138121     A.U. after   10 cycles
 SCF Done:  E(RM062X) =  -234.421136857     A.U. after   10 cycles
 SCF Done:  E(RM062X) =  -234.421140552     A.U. after   10 cycles
 SCF Done:  E(RM062X) =  -234.421141201     A.U. after    9 cycles
 SCF Done:  E(RM062X) =  -234.421141656     A.U. after   10 cycles
 SCF Done:  E(RM062X) =  -234.421141658     A.U. after    9 cycles
 Optimization completed.
    -- Stationary point found.
 Normal termination of Gaussian 09 at Thu Mar 23 03:18:46 2017.

 ---------------------------------------------------------------------
 #N Geom=AllCheck Guess=TCheck SCRF=Check GenChk RM062X/6-31+G(d) Freq
 ---------------------------------------------------------------------

 Structure from the checkpoint file:  "/work/1952437.1.c2_smp.q/Gau-9455.chk"
 -------------------
 Title Card Required
 -------------------
 Charge =  0 Multiplicity = 1

                         Standard orientation:
 ---------------------------------------------------------------------
 Center     Atomic      Atomic             Coordinates (Angstroms)
 Number     Number       Type             X           Y           Z
 ---------------------------------------------------------------------
      1          6           0       -0.449119    1.424695   -0.500299
      2          1           0       -0.381441    2.504328   -0.395213
      3          6           0       -1.309811    0.704873    0.297085
      4          1           0       -1.841692    1.219108    1.094808
      5          6           0       -0.448146   -1.424824   -0.500333
      6          1           0       -0.379979   -2.504438   -0.395348
      7          6           0       -1.309418   -0.705597    0.296984
      8          1           0       -1.841335   -1.220211    1.094436
      9          6           0        1.565196    0.690361    0.231321
     10          6           0        1.565596   -0.689608    0.231397
     11          1           0        1.442967    1.234886    1.160628
     12          1           0        1.443505   -1.234099    1.160744
     13          1           0       -0.120833   -1.036654   -1.458567
     14          1           0       -0.121682    1.036791   -1.458607
     15          1           0        2.057011    1.234352   -0.569980
     16          1           0        2.057692   -1.233464   -0.569825
 ---------------------------------------------------------------------

 SCF Done:  E(RM062X) =  -234.421141658     A.U. after    1 cycles

 The electronic state is 1-A.
 Alpha  occ. eigenvalues --  -10.55577 -10.55575 -10.54964 -10.54881 -10.54470
 Alpha  occ. eigenvalues --  -10.54402  -0.91268  -0.84449  -0.81423  -0.70942
 Alpha  occ. eigenvalues --   -0.66451  -0.59785  -0.56758  -0.53734  -0.49623
 Alpha  occ. eigenvalues --   -0.47220  -0.47209  -0.42988  -0.41778  -0.41080
 Alpha  occ. eigenvalues --   -0.40363  -0.27930  -0.27790
 Alpha virt. eigenvalues --    0.00191   0.02339   0.03088   0.03668   0.03944
 Alpha virt. eigenvalues --    0.05564   0.05956   0.06988   0.07536   0.08486
 Alpha virt. eigenvalues --    0.09349   0.10618   0.11084   0.11577   0.12218

 Mulliken charges:
               1
     1  C   -0.615707
     2  H    0.212758
     3  C    0.010575
     4  H    0.196121
     5  C   -0.615589
     6  H    0.212755
     7  C    0.010414
     8  H    0.196124
     9  C   -0.460618
    10  C   -0.460582
    11  H    0.225740
    12  H    0.225747
    13  H    0.212301
    14  H    0.212292
    15  H    0.218827
    16  H    0.218840
 Sum of Mulliken charges =   0.00000

 Dipole moment (field-independent basis, Debye):
    X=              0.4665    Y=              0.0000    Z=              0.0229  Tot=              0.4671
 Quadrupole moment (field-independent basis, Debye-Ang):
   XX=            -43.4181   YY=            -36.3569   ZZ=            -37.7338
   XY=             -0.0018   XZ=             -3.4932   YZ=             -0.0007

  Exact polarizability:  90.685  -0.001  87.347  -2.125  -0.001  58.969
 Approx polarizability: 114.012  -0.002 113.414  -5.134  -0.003  71.897

 ******    1 imaginary frequencies (negative Signs) ******

                      1                      2                      3
                      A                      A                      A
 Frequencies --   -502.3101               141.3010               229.6005
 Red. masses --      8.7086                 2.0462                 4.3022
 Frc consts  --      1.2946                 0.0241                 0.1336
 IR Inten    --     11.2479                 0.7936                 2.1149

                      4                      5                      6
                      A                      A                      A
 Frequencies --    287.9838               381.9855               404.6469
 Red. masses --      2.8009                 2.5422                 2.6306
 Frc consts  --      0.1369                 0.2185                 0.2538
 IR Inten    --      0.5476                 0.1828                 3.1379

                      7                      8                      9
                      A                      A                      A
 Frequencies --    489.7462               581.7771               630.2018
 Red. masses --      2.5919                 2.0038                 1.0870
 Frc consts  --      0.3663                 0.3996                 0.2544
 IR Inten    --      0.0182                 0.0121                 1.6819

                     10                     11                     12
                      A                      A                      A
 Frequencies --    703.9271               791.5861               833.5829
 Red. masses --      1.1979                 1.4946                 1.0837
 Frc consts  --      0.3497                 0.5518                 0.4437
 IR Inten    --     40.2264                 1.0849                 2.0968

                     13                     14                     15
                      A                      A                      A
 Frequencies --    855.0536               949.1186               958.4862
 Red. masses --      1.0528                 1.1790                 1.4268
 Frc consts  --      0.4535                 0.6258                 0.7723
 IR Inten    --      0.0093                 6.3294                19.9179

                     16                     17                     18
                      A                      A                      A
 Frequencies --    988.5087              1008.9617              1011.1744
 Red. masses --      1.1938                 1.1071                 1.3632
 Frc consts  --      0.6873                 0.6640                 0.8212
 IR Inten    --      5.7199                 0.1855                 1.4811

                     19                     20                     21
                      A                      A                      A
 Frequencies --   1029.2202              1029.4041              1109.9283
 Red. masses --      1.1264                 1.1793                 1.5425
 Frc consts  --      0.7030                 0.7363                 1.1196
 IR Inten    --      8.0826                58.0551                 0.9770

                     22                     23                     24
                      A                      A                      A
 Frequencies --   1118.2483              1249.2278              1278.5686
 Red. masses --      1.6657                 1.4013                 1.6482
 Frc consts  --      1.2272                 1.2885                 1.5875
 IR Inten    --      1.8422                 0.0338                 0.0076

                     25                     26                     27
                      A                      A                      A
 Frequencies --   1287.1374              1338.2423              1446.8274
 Red. masses --      1.3858                 1.4750                 1.1916
 Frc consts  --      1.3526                 1.5563                 1.4697
 IR Inten    --      0.6225                 2.2188                 1.2363

                     28                     29                     30
                      A                      A                      A
 Frequencies --   1480.7354              1509.4220              1575.8057
 Red. masses --      1.1085                 1.5217                 1.6016
 Frc consts  --      1.4320                 2.0426                 2.3431
 IR Inten    --      1.9242                 8.7802                 1.8775

                     31                     32                     33
                      A                      A                      A
 Frequencies --   1638.2601              1641.5044              3183.4650
 Red. masses --      2.9949                 2.7821                 1.0501
 Frc consts  --      4.7358                 4.4168                 6.2700
 IR Inten    --      2.7658                 0.3152                 5.1931

                     34                     35                     36
                      A                      A                      A
 Frequencies --   3190.8552              3191.5001              3196.2422
 Red. masses --      1.0581                 1.0596                 1.0642
 Frc consts  --      6.3476                 6.3589                 6.4057
 IR Inten    --     10.0612                 4.4409                 1.7040

                     37                     38                     39
                      A                      A                      A
 Frequencies --   3203.4426              3219.8332              3262.4521
 Red. masses --      1.0872                 1.0944                 1.1167
 Frc consts  --      6.5733                 6.6849                 7.0028
 IR Inten    --     10.1804                13.9106                 0.7554

                     40                     41                     42
                      A                      A                      A
 Frequencies --   3272.5748              3274.6400              3285.2653
 Red. masses --      1.1152                 1.1151                 1.1179
 Frc consts  --      7.0369                 7.0454                 7.1088
 IR Inten    --      4.0883                11.3809                12.3346

 - Thermochemistry -
 -------------------
 Temperature   298.150 Kelvin.  Pressure   1.00000 Atm.
 Atom     1 has atomic number  6 and mass  12.00000

 Molecular mass:    82.07825 amu.
 Principal axes and moments of inertia in atomic units:
                           1         2         3
     Eigenvalues --   413.42993 515.74652 788.16493
           X            0.99975  -0.00005  -0.02252
           Y            0.00005   1.00000  -0.00001
           Z            0.02252   0.00001   0.99975
 This molecule is an asymmetric top.
 Rotational symmetry number  1.
 Rotational temperatures (Kelvin)      0.20950     0.16794     0.10989
 Rotational constants (GHZ):           4.36529     3.49928     2.28980
    1 imaginary frequencies ignored.
 Zero-point vibrational energy     372400.2 (Joules/Mol)
                                   89.00577 (Kcal/Mol)
 Warning -- explicit consideration of   7 degrees of freedom as
           vibrations may cause significant error
 Vibrational temperatures:    203.30   330.34   414.34   549.59   582.20
          (Kelvin)            704.63   837.05   906.72  1012.79  1138.91
                             1199.34  1230.23  1365.57  1379.05  1422.24
                             1451.67  1454.85  1480.82  1481.08  1596.94
                             1608.91  1797.36  1839.57  1851.90  1925.43
                             2081.66  2130.45  2171.72  2267.23  2357.09
                             2361.76  4580.29  4590.92  4591.85  4598.67
                             4609.03  4632.62  4693.94  4708.50  4711.47
                             4726.76

 Zero-point correction=                           0.141840 (Hartree/Particle)
 Thermal correction to Energy=                    0.148168
 Thermal correction to Enthalpy=                  0.149113
 Thermal correction to Gibbs Free Energy=         0.112396
 Sum of electronic and zero-point Energies=           -234.279302
 Sum of electronic and thermal Energies=              -234.272973
 Sum of electronic and thermal Enthalpies=            -234.272029
 Sum of electronic and thermal Free Energies=         -234.308745

                     E (Thermal)             CV                S
                      KCal/Mol        Cal/Mol-Kelvin    Cal/Mol-Kelvin
 Total                   92.977             24.517             77.276
 Electronic               0.000              0.000              0.000
 Translational            0.889              2.981             39.129
 Rotational               0.889              2.981             26.622
 Vibrational             91.200             18.555             11.525
 Vibration     1          0.615              1.912              2.786
 Vibration     2          0.652              1.796              1.882
 Vibration     3          0.685              1.696              1.486
 Vibration     4          0.751              1.509              1.031
 Vibration     5          0.770              1.460              0.946
 Vibration     6          0.846              1.273              0.684
 Vibration     7          0.939              1.071              0.482

 Optimization completed.
    -- Stationary point found.
 Normal termination of Gaussian 09 at Thu Mar 23 03:37:57 2017.
